# vtk DataFile Version 5.1
vtk output
ASCII
DATASET POLYDATA
POINTS 268 float
774583 8.29787e+06 2042.46 981031 8.39347e+06 2973.54 980056 8.16271e+06 2297.29 
926327 8.26739e+06 2715.23 925324 8.36799e+06 2696.18 1.02327e+06 8.48003e+06 2416.65 
921193 8.48607e+06 2821.3 966091 8.48143e+06 2897.38 1.01771e+06 8.25408e+06 2356.55 
1.02665e+06 8.39992e+06 2438.63 1.06284e+06 8.20773e+06 2210.2 997233 8.39371e+06 3698.93 
1.01806e+06 8.46197e+06 3046.3 1.00029e+06 8.41888e+06 3404.12 918004 8.1562e+06 3337.2 
747123 8.26196e+06 1738.89 923914 8.3151e+06 3091.64 808323 8.19323e+06 2875.61 
799782 8.21046e+06 3145.76 1.03814e+06 8.43198e+06 2277.22 900490 8.20352e+06 3085.24 
877926 8.50229e+06 1944.26 1.03292e+06 8.20336e+06 2599.29 1.05699e+06 8.31471e+06 3567 
752059 8.15864e+06 2371.38 790641 8.1945e+06 2890.12 826047 8.2908e+06 2503.46 
818617 8.45609e+06 1926.16 963049 8.52472e+06 2457.65 1.02069e+06 8.46294e+06 2814.09 
1.00693e+06 8.52955e+06 3112.9 1.01592e+06 8.40266e+06 3264.21 1.06516e+06 8.3101e+06 2877.07 
857467 8.19764e+06 2991.25 995046 8.46151e+06 2519.01 1.07479e+06 8.28948e+06 2032.23 
1.05743e+06 8.4133e+06 1662.07 968748 8.36549e+06 3588.43 775807 8.22217e+06 3033.97 
923878 8.34381e+06 3344.51 946548 8.34404e+06 2813.6 822508 8.20983e+06 3075.96 
823360 8.23385e+06 2533.86 1.01523e+06 8.47421e+06 2948.71 919479 8.16608e+06 3573.58 
896535 8.41333e+06 2192.5 1.00521e+06 8.4967e+06 3120.25 821962 8.22329e+06 3340.34 
723666 8.18536e+06 2101.34 945733 8.36122e+06 2931.73 854882 8.50387e+06 1911.95 
1.02575e+06 8.47794e+06 2437.86 1.06285e+06 8.45647e+06 1515.45 1.06353e+06 8.4856e+06 1529.42 
964389 8.159e+06 2316.23 865054 8.35302e+06 2698.08 918802 8.50435e+06 2561.16 
922279 8.31501e+06 3087.3 819576 8.16241e+06 2521.39 923469 8.32482e+06 3163.13 
1.07961e+06 8.38863e+06 1796.48 911086 8.33465e+06 3440.46 790876 8.20999e+06 3115.31 
951947 8.48205e+06 3260.3 733202 8.16081e+06 1803.32 945395 8.42851e+06 3265.27 
797905 8.31612e+06 1542.43 1.07879e+06 8.41152e+06 1619.37 902224 8.36167e+06 2373.1 
1.01677e+06 8.53782e+06 2838.89 979440 8.15932e+06 2295.19 997721 8.48501e+06 2786.91 
1.02435e+06 8.37417e+06 2457.94 773283 8.40027e+06 1955.72 744874 8.53909e+06 1780.13 
816938 8.21478e+06 3106.85 905076 8.46356e+06 2422.12 770749 8.45676e+06 2064.22 
756348 8.36129e+06 1457.6 733117 8.44931e+06 1896.23 1.01744e+06 8.50409e+06 3006.33 
962230 8.37325e+06 3376.94 1.05376e+06 8.21811e+06 2745.03 781048 8.42919e+06 2156.86 
876913 8.26408e+06 2735.95 1.00818e+06 8.48776e+06 3448.81 985842 8.5197e+06 2740.99 
941449 8.18927e+06 2388.72 872257 8.19992e+06 2744.84 739291 8.35897e+06 1823.13 
950382 8.35859e+06 3039.92 1.04058e+06 8.35299e+06 2094.59 1.05273e+06 8.48507e+06 1651.14 
896497 8.16858e+06 3346.58 1.01747e+06 8.4334e+06 2939.63 925455 8.37019e+06 2811.58 
828752 8.5348e+06 2180.55 830743 8.39925e+06 1685.19 1.04467e+06 8.3242e+06 2750.52 
1.00669e+06 8.40811e+06 2791.3 1.01093e+06 8.21641e+06 3518.74 1.07391e+06 8.37243e+06 1872.8 
736314 8.16471e+06 1864.57 870958 8.27936e+06 2330.08 760969 8.16178e+06 2088.73 
806245 8.5098e+06 1836.19 740170 8.36368e+06 1369.29 1.02346e+06 8.42588e+06 2960.67 
1.03838e+06 8.3192e+06 2596.8 941166 8.40309e+06 2530.28 873721 8.40102e+06 2258.65 
985451 8.2531e+06 3150.33 807264 8.28799e+06 1743.02 920978 8.22133e+06 3386.6 
955423 8.46636e+06 2524.05 961424 8.37472e+06 3509.58 796683 8.16101e+06 2375.37 
986943 8.37993e+06 3307.54 964321 8.31329e+06 2427.23 977336 8.40078e+06 2772.66 
1.01127e+06 8.51734e+06 2637.71 1.05537e+06 8.3759e+06 1922.77 998478 8.47034e+06 2601.24 
789942 8.23528e+06 2336.72 893020 8.1699e+06 3170.57 918702 8.24248e+06 3110.83 
1.05788e+06 8.38191e+06 1728.52 1.01833e+06 8.23388e+06 2394.33 930037 8.34454e+06 3286.77 
1.01884e+06 8.44324e+06 3158.11 856937 8.40127e+06 1912.51 1.0463e+06 8.50627e+06 2214.07 
989159 8.40515e+06 3703.67 805922 8.36862e+06 1872.37 1.06418e+06 8.50109e+06 1526.11 
828065 8.39771e+06 1793.11 1.0695e+06 8.50077e+06 1489.85 762047 8.35067e+06 1455.34 
1.00561e+06 8.40266e+06 3224.97 757624 8.35958e+06 1462.68 736367 8.5144e+06 1764.74 
1.04516e+06 8.30594e+06 2752.51 835183 8.35062e+06 2985.27 872148 8.46058e+06 3131.92 
835300 8.19801e+06 3785.84 843757 8.43716e+06 2896.03 1.05211e+06 8.50105e+06 1818.9 
1.04122e+06 8.26907e+06 1629.3 1.0191e+06 8.20274e+06 2967.04 935948 8.40043e+06 2868.94 
983441 8.53849e+06 3030.5 776755 8.21103e+06 3228.9 863942 8.40005e+06 1830.95 
997895 8.43469e+06 2633.98 830410 8.40251e+06 1657.07 1.03761e+06 8.441e+06 2030.74 
833651 8.17375e+06 3206.77 978393 8.35635e+06 3005.56 826112 8.29211e+06 2323.44 
892350 8.46587e+06 2769.12 997776 8.21825e+06 2422.67 877745 8.34668e+06 3082.78 
875658 8.44824e+06 2972.88 923344 8.53538e+06 2850.47 1.01858e+06 8.45535e+06 3017.63 
992919 8.42697e+06 3356.94 836669 8.27905e+06 2239.7 764366 8.2817e+06 2784.74 
930469 8.36658e+06 3473.85 1.02399e+06 8.17595e+06 3203.42 918837 8.5038e+06 2597.71 
923323 8.3637e+06 3238.91 816761 8.24799e+06 2179.02 1.06111e+06 8.3962e+06 1682.11 
927428 8.45575e+06 2738.38 890483 8.3231e+06 2723.53 864708 8.22705e+06 3456.11 
906398 8.27453e+06 2487.84 792705 8.35355e+06 2403.4 895883 8.45354e+06 2933.27 
863572 8.4226e+06 3346.52 1.02234e+06 8.44416e+06 2917.89 788076 8.17141e+06 3563.14 
797540 8.34998e+06 3141.68 914849 8.49946e+06 2106.72 743671 8.15426e+06 2327.51 
826515 8.16211e+06 2331.68 825540 8.29097e+06 2553.86 951131 8.44993e+06 2249.34 
887195 8.20741e+06 2641.95 885157 8.33958e+06 3274.03 1.04135e+06 8.34868e+06 2234.35 
1.06701e+06 8.4265e+06 1657.07 1.05973e+06 8.37506e+06 1968.32 744512 8.46753e+06 1626.78 
933352 8.40058e+06 2921.99 957046 8.31398e+06 2587.94 985024 8.49769e+06 2826.88 
949716 8.40397e+06 2781.06 1.02375e+06 8.52738e+06 2499.53 1.07e+06 8.21118e+06 1887.01 
1.03612e+06 8.37075e+06 2397.74 1.04563e+06 8.43773e+06 1693.41 819700 8.20351e+06 3216.8 
1.05481e+06 8.54424e+06 2131.65 848868 8.49973e+06 1971.5 729750 8.39935e+06 2151.53 
749717 8.31969e+06 2311.79 922153 8.25272e+06 3233.35 976833 8.48064e+06 2938.37 
990718 8.4667e+06 2657.59 864299 8.45764e+06 2530.35 927465 8.50438e+06 3152.32 
820185 8.45692e+06 1917.29 805050 8.22661e+06 2730.07 973452 8.37185e+06 3398.25 
1.07545e+06 8.33334e+06 2072.47 995048 8.49944e+06 3246.68 849804 8.21586e+06 3585.14 
1.06658e+06 8.40788e+06 1589.45 1.057e+06 8.41045e+06 1700.21 772714 8.35775e+06 1435.91 
809285 8.19427e+06 2660.37 811363 8.19856e+06 3170.8 965144 8.44692e+06 2452.14 
925280 8.45392e+06 2683.77 1.0475e+06 8.4198e+06 1855.68 776806 8.2555e+06 2362.2 
780587 8.17861e+06 3359.48 883750 8.37639e+06 2338.49 947326 8.40197e+06 3051.03 
808777 8.28571e+06 1769.69 892968 8.32473e+06 3164.3 744122 8.19811e+06 2480.94 
966976 8.41187e+06 2918.72 935748 8.26842e+06 2597.32 850704 8.17593e+06 3213.9 
813993 8.34769e+06 3020.27 1.0121e+06 8.19016e+06 2550.71 888939 8.28471e+06 2340.82 
770308 8.24931e+06 2159.44 811899 8.35364e+06 3047 1.03259e+06 8.32658e+06 2446.32 
822944 8.17338e+06 3436.4 1.00425e+06 8.44508e+06 3213.02 988285 8.48551e+06 3404.17 
1.00035e+06 8.48597e+06 3209.65 1.02223e+06 8.44366e+06 2952.39 774703 8.17129e+06 2981.45 
871476 8.20809e+06 2942.44 1.07497e+06 8.17585e+06 1909.4 985934 8.3307e+06 2719.31 
1.02217e+06 8.3194e+06 2652.13 1.02779e+06 8.29475e+06 2676.93 1.00714e+06 8.38116e+06 2874.13 
769011 8.37423e+06 1896.98 877093 8.18529e+06 3185.05 856025 8.23451e+06 2657.46 
819010 8.21906e+06 3563.17 824042 8.32397e+06 1805.33 951505 8.17654e+06 2343.78 
729139 8.48592e+06 1813.31 1.0396e+06 8.39906e+06 2245.04 978692 8.42003e+06 2748.66 
904780 8.53983e+06 2687.33 933332 8.48754e+06 2841.99 964702 8.38666e+06 3346.54 
904746 8.35658e+06 2660.72 
VERTICES 269 268
OFFSETS vtktypeint64
0 1 2 3 4 5 6 7 8 
9 10 11 12 13 14 15 16 17 
18 19 20 21 22 23 24 25 26 
27 28 29 30 31 32 33 34 35 
36 37 38 39 40 41 42 43 44 
45 46 47 48 49 50 51 52 53 
54 55 56 57 58 59 60 61 62 
63 64 65 66 67 68 69 70 71 
72 73 74 75 76 77 78 79 80 
81 82 83 84 85 86 87 88 89 
90 91 92 93 94 95 96 97 98 
99 100 101 102 103 104 105 106 107 
108 109 110 111 112 113 114 115 116 
117 118 119 120 121 122 123 124 125 
126 127 128 129 130 131 132 133 134 
135 136 137 138 139 140 141 142 143 
144 145 146 147 148 149 150 151 152 
153 154 155 156 157 158 159 160 161 
162 163 164 165 166 167 168 169 170 
171 172 173 174 175 176 177 178 179 
180 181 182 183 184 185 186 187 188 
189 190 191 192 193 194 195 196 197 
198 199 200 201 202 203 204 205 206 
207 208 209 210 211 212 213 214 215 
216 217 218 219 220 221 222 223 224 
225 226 227 228 229 230 231 232 233 
234 235 236 237 238 239 240 241 242 
243 244 245 246 247 248 249 250 251 
252 253 254 255 256 257 258 259 260 
261 262 263 264 265 266 267 268 
CONNECTIVITY vtktypeint64
0 1 2 3 4 5 6 7 8 
9 10 11 12 13 14 15 16 17 
18 19 20 21 22 23 24 25 26 
27 28 29 30 31 32 33 34 35 
36 37 38 39 40 41 42 43 44 
45 46 47 48 49 50 51 52 53 
54 55 56 57 58 59 60 61 62 
63 64 65 66 67 68 69 70 71 
72 73 74 75 76 77 78 79 80 
81 82 83 84 85 86 87 88 89 
90 91 92 93 94 95 96 97 98 
99 100 101 102 103 104 105 106 107 
108 109 110 111 112 113 114 115 116 
117 118 119 120 121 122 123 124 125 
126 127 128 129 130 131 132 133 134 
135 136 137 138 139 140 141 142 143 
144 145 146 147 148 149 150 151 152 
153 154 155 156 157 158 159 160 161 
162 163 164 165 166 167 168 169 170 
171 172 173 174 175 176 177 178 179 
180 181 182 183 184 185 186 187 188 
189 190 191 192 193 194 195 196 197 
198 199 200 201 202 203 204 205 206 
207 208 209 210 211 212 213 214 215 
216 217 218 219 220 221 222 223 224 
225 226 227 228 229 230 231 232 233 
234 235 236 237 238 239 240 241 242 
243 244 245 246 247 248 249 250 251 
252 253 254 255 256 257 258 259 260 
261 262 263 264 265 266 267 
POINT_DATA 268
FIELD FieldData 1
temperature 1 268 double
26.7 20.7 17.8 18.7 19.9 29.1 20.9 19.5 29 
30 34.3 20.8 23 18.5 25.6 29.2 14.7 27 
21.8 30.8 20 20.4 29 21 29.8 23.9 24.2 
18.5 15.5 28.1 18.1 22.5 22.2 17.8 16.2 35.7 
33.9 21.1 21.1 17 18.3 13.5 25.6 22.9 20.7 
25.1 16.7 22.1 29 15.1 17 26.8 34.2 31.9 
12.1 26.9 21.7 10.5 20.7 18.3 35.3 18.7 22 
16.2 29.4 19.2 27 34.9 20.6 24.1 15.3 20.7 
24.5 23.4 27.8 20.2 19.1 26.7 26.7 24.7 20.7 
14.4 29 27.5 20.2 18 22 13.8 15 26.5 
16.6 31.2 32 23.9 24.2 18.4 21.7 23.3 21.2 
26.3 20.9 39.1 30.4 12 27.2 16.9 25.6 26.1 
21.5 19.8 24.7 19.4 24.4 21.8 20 16.6 29.2 
20.5 24.9 17.3 25.9 30.3 18.4 25.1 20 21.2 
34.2 25.1 18.3 20 23.7 31.2 16.8 23.2 35.1 
26.3 33.9 26.8 22.2 27.8 27.2 23.8 18.7 18.4 
20.2 22.9 34.6 36 25.5 23.5 20 19.1 23.9 
15.1 21.3 34.8 25 17.7 23.6 22.9 19.6 23.3 
21.8 22.2 21.3 16.6 18.3 24.2 18.2 20.6 25 
17.7 21.5 35.1 16.6 8.8 19.4 11.5 24.3 20 
16.3 22.9 23.1 20.7 19.6 27.5 21.2 22.2 14.5 
11.1 18.5 32.5 36.6 33.8 14.6 24.8 26.7 17.8 
18.5 26.3 36.3 30.8 36.2 21.1 27.9 19.4 27.4 
25.6 18.8 18 22.7 21.9 16.2 19.2 18.2 17.6 
30.6 19.8 20.2 36.7 36.1 28.2 29.8 24.4 14.7 
19.6 36.3 27.2 25.2 24.6 20.5 27.9 21.3 25.7 
20.3 13.8 23.9 16.8 21.3 7.9 23.7 17 22.8 
20.9 18.3 16.6 16.9 20.3 27.5 17.1 35.7 10.5 
12.6 26.6 22.9 26.9 19.6 14.4 20 30.3 11.7 
21.2 31.4 19.8 22.5 21.1 19.8 20.1 
